##
# A CIF 1.1 file that contains data items from a looped category that
# do not appear in a loop data structure. Namely, data items from the
# ATOM_SITE category describe only a single item and are therefore allowed
# to be placed outside of a loop.
##

##
# Original COD entry: 9012470
# COD entry URL: https://www.crystallography.net/cod/9012470.cif
# Paper DOI: 10.1063/1.1841236
##

data_test_009
_publ_section_title
;
 Hexagonal diamond-a new form of carbon
;
_journal_paper_doi               10.1063/1.1841236
_journal_name_full               'Journal of Chemical Physics'
_journal_page_first              3437
_journal_page_last               3446
_journal_volume                  46
_journal_year                    1967
_chemical_formula_sum            C
_chemical_name_mineral           Lonsdaleite
_space_group_IT_number           194
_symmetry_space_group_name_Hall  '-P 6c 2c'
_symmetry_space_group_name_H-M   'P 63/m m c'
_cell_angle_alpha                90
_cell_angle_beta                 90
_cell_angle_gamma                120
_cell_length_a                   2.52
_cell_length_b                   2.52
_cell_length_c                   4.12
_cell_volume                     22.658
_exptl_crystal_density_diffrn    3.521
_atom_site_label   C
_atom_site_fract_x 0.33333
_atom_site_fract_y 0.66667
_atom_site_fract_z 0.06250
